Generated by Psi4
        SP                           RHF                      DEF2-SVP
Number of atoms                            I                6
Charge                                     I                0
Multiplicity                               I                1
Number of electrons                        I               22
Number of alpha electrons                  I               11
Number of beta electrons                   I               11
Number of basis functions                  I               57
Number of independent functions            I               57
Atomic numbers                             I   N=           6
           6           6           7           1           1           1
Nuclear charges                            R   N=           6
  6.00000000e+00  6.00000000e+00  7.00000000e+00  1.00000000e+00  1.00000000e+00
  1.00000000e+00
Current cartesian coordinates              R   N=          18
 -9.47914416e-02 -4.03429036e-02 -2.42166744e+00  1.12788859e-02  3.25307813e-03
  3.13673335e-01  9.77905479e-02  4.25404843e-02  2.48183171e+00  3.50484725e-01
 -1.92621399e+00 -3.11867402e+00  1.26662395e+00  1.29599582e+00 -3.20161410e+00
 -1.98147511e+00  4.80767973e-01 -3.06362630e+00
Integer atomic weights                     I   N=           6
          12          12          14           1           1           1
Real atomic weights                        R   N=           6
  1.20000000e+01  1.20000000e+01  1.40030740e+01  1.00782503e+00  1.00782503e+00
  1.00782503e+00
Number of primitive shells                 I               51
Number of contracted shells                I               27
Pure/Cartesian d shells                    I                0
Pure/Cartesian f shells                    I                0
Highest angular momentum                   I                2
Largest degree of contraction              I                5
Shell types                                I   N=          27
           0           0           0           1           1          -2
           0           0           0           1           1          -2
           0           0           0           1           1          -2
           0           0           1           0           0           1
           0           0           1
Number of primitives per shell             I   N=          27
           5           1           1           3           1           1
           5           1           1           3           1           1
           5           1           1           3           1           1
           3           1           1           3           1           1
           3           1           1
Shell to atom map                          I   N=          27
           1           1           1           1           1           1
           2           2           2           2           2           2
           3           3           3           3           3           3
           4           4           4           5           5           5
           6           6           6
Primitive exponents                        R   N=          51
  1.23840169e+03  1.86290050e+02  4.22511763e+01  1.16765579e+01  3.59305065e+00
  4.02451474e-01  1.30901827e-01  9.46809706e+00  2.01035451e+00  5.47710047e-01
  1.52686138e-01  8.00000000e-01  1.23840169e+03  1.86290050e+02  4.22511763e+01
  1.16765579e+01  3.59305065e+00  4.02451474e-01  1.30901827e-01  9.46809706e+00
  2.01035451e+00  5.47710047e-01  1.52686138e-01  8.00000000e-01  1.71284159e+03
  2.57648127e+02  5.84582459e+01  1.61983679e+01  5.00526008e+00  5.87318566e-01
  1.87645923e-01  1.35714702e+01  2.92573729e+00  7.99277508e-01  2.19543480e-01
  1.00000000e+00  1.30107010e+01  1.96225720e+00  4.44537960e-01  1.21949620e-01
  8.00000000e-01  1.30107010e+01  1.96225720e+00  4.44537960e-01  1.21949620e-01
  8.00000000e-01  1.30107010e+01  1.96225720e+00  4.44537960e-01  1.21949620e-01
  8.00000000e-01
Contraction coefficients                   R   N=          51
  5.51736505e-03  4.10888286e-02  1.82253821e-01  4.68284594e-01  4.45758173e-01
  1.00000000e+00  1.00000000e+00  5.68883320e-02  3.12940593e-01  7.60650165e-01
  1.00000000e+00  1.00000000e+00  5.51736505e-03  4.10888286e-02  1.82253821e-01
  4.68284594e-01  4.45758173e-01  1.00000000e+00  1.00000000e+00  5.68883320e-02
  3.12940593e-01  7.60650165e-01  1.00000000e+00  1.00000000e+00 -5.44779958e-03
 -4.06271746e-02 -1.81119623e-01 -4.68439756e-01 -4.46168463e-01  1.00000000e+00
  1.00000000e+00 -5.88481170e-02 -3.20246248e-01 -7.53282265e-01  1.00000000e+00
  1.00000000e+00  3.34854848e-02  2.34721871e-01  8.13770285e-01  1.00000000e+00
  1.00000000e+00  3.34854848e-02  2.34721871e-01  8.13770285e-01  1.00000000e+00
  1.00000000e+00  3.34854848e-02  2.34721871e-01  8.13770285e-01  1.00000000e+00
  1.00000000e+00
Coordinates of each shell                  R   N=          81
 -9.47914416e-02 -4.03429036e-02 -2.42166744e+00 -9.47914416e-02 -4.03429036e-02
 -2.42166744e+00 -9.47914416e-02 -4.03429036e-02 -2.42166744e+00 -9.47914416e-02
 -4.03429036e-02 -2.42166744e+00 -9.47914416e-02 -4.03429036e-02 -2.42166744e+00
 -9.47914416e-02 -4.03429036e-02 -2.42166744e+00  1.12788859e-02  3.25307813e-03
  3.13673335e-01  1.12788859e-02  3.25307813e-03  3.13673335e-01  1.12788859e-02
  3.25307813e-03  3.13673335e-01  1.12788859e-02  3.25307813e-03  3.13673335e-01
  1.12788859e-02  3.25307813e-03  3.13673335e-01  1.12788859e-02  3.25307813e-03
  3.13673335e-01  9.77905479e-02  4.25404843e-02  2.48183171e+00  9.77905479e-02
  4.25404843e-02  2.48183171e+00  9.77905479e-02  4.25404843e-02  2.48183171e+00
  9.77905479e-02  4.25404843e-02  2.48183171e+00  9.77905479e-02  4.25404843e-02
  2.48183171e+00  9.77905479e-02  4.25404843e-02  2.48183171e+00  3.50484725e-01
 -1.92621399e+00 -3.11867402e+00  3.50484725e-01 -1.92621399e+00 -3.11867402e+00
  3.50484725e-01 -1.92621399e+00 -3.11867402e+00  1.26662395e+00  1.29599582e+00
 -3.20161410e+00  1.26662395e+00  1.29599582e+00 -3.20161410e+00  1.26662395e+00
  1.29599582e+00 -3.20161410e+00 -1.98147511e+00  4.80767973e-01 -3.06362630e+00
 -1.98147511e+00  4.80767973e-01 -3.06362630e+00 -1.98147511e+00  4.80767973e-01
 -3.06362630e+00
Total Energy                               R     -1.324917051840028e+02
Alpha Orbital Energies                     R   N=          57
 -1.43855042e+01 -1.02859006e+01 -1.02738219e+01 -9.24795108e-01 -7.95568108e-01
 -5.30049368e-01 -4.80534261e-01 -4.80321679e-01 -3.71395532e-01 -3.45393091e-01
 -3.45334690e-01  4.41078372e-02  4.41576646e-02  5.97453211e-02  1.39698574e-01
  1.39760373e-01  1.88657925e-01  2.32940238e-01  4.67303182e-01  4.67663562e-01
  5.47088126e-01  5.52299975e-01  5.52557561e-01  6.39188368e-01  6.50914734e-01
  6.51206550e-01  6.83980203e-01  7.18677760e-01  8.73988267e-01  8.74042217e-01
  9.17310002e-01  1.08735640e+00  1.12716244e+00  1.18004726e+00  1.18029990e+00
  1.49904404e+00  1.57710518e+00  1.57716114e+00  1.62412884e+00  1.62422875e+00
  1.78099313e+00  1.78118857e+00  1.87284348e+00  2.05822094e+00  2.05914969e+00
  2.18675310e+00  2.27962601e+00  2.27987032e+00  2.41579756e+00  2.41610238e+00
  2.63802513e+00  2.84706972e+00  2.84716755e+00  2.98548973e+00  3.11034234e+00
  3.11093689e+00  3.50712741e+00
Alpha MO coefficients                      R   N=        3249
 -1.62580697e-04  1.63292217e-03  2.08168816e-02  4.23640373e-05  1.68328728e-05
  1.08949848e-03  2.14212937e-04  7.14928523e-05  5.82296993e-03  3.36113475e-04
  2.12475777e-05  6.78148809e-06  7.73184483e-08 -6.05939199e-08  2.57118655e-04
  2.08113578e-03  1.72647565e-02 -1.46002340e-04 -6.67579007e-05 -3.65506201e-03
  1.29853807e-03  5.78594134e-04  3.27515463e-02 -2.51963387e-03 -1.73046676e-04
 -7.67182262e-05 -2.72910540e-06 -3.11459134e-06 -9.88893455e-01  4.46015272e-02
 -5.60873248e-02  2.00756364e-04  9.21504213e-05  5.01230684e-03  5.95085733e-04
  2.74061405e-04  1.48412727e-02  1.32960869e-03  9.19807151e-05  4.18288765e-05
  1.46226584e-06  1.68228557e-06 -1.78628218e-04 -2.02130465e-03  3.61120158e-05
 -1.13964951e-04  1.37446232e-04 -1.70981247e-04 -2.01257043e-03  9.08098490e-05
  8.59930354e-05  1.30255961e-04 -1.75190223e-04 -2.02015399e-03 -1.09402565e-04
  3.71516772e-05  1.40784436e-04  9.88069943e-01  5.03311942e-02 -3.82437760e-02
 -1.04052135e-06  3.43444394e-07 -3.72661534e-05 -2.71255879e-05 -2.05968325e-05
 -5.21387983e-04 -3.05546419e-04 -2.07048828e-05 -3.79988093e-06 -9.38708762e-07
 -4.65890444e-06  1.13004626e-02 -3.33782679e-04  1.34589244e-02  7.06164813e-05
  2.88916233e-05  1.82685855e-03  2.02269434e-04  9.25531575e-05  4.98883070e-03
 -2.11463653e-03 -1.42297300e-04 -5.77901788e-05 -2.30848681e-06 -2.01353709e-06
  1.96801030e-04  2.29238789e-03 -1.12524212e-02  2.82339480e-05  1.43513245e-05
  6.87440239e-04  1.38112557e-04  6.46184113e-05  3.45424806e-03  2.48221301e-04
  1.79263201e-05  9.35819779e-06  2.51132535e-07  3.46334577e-07 -2.97407662e-03
  7.50026670e-03  5.37524285e-04 -2.23967029e-03 -6.25303752e-04 -2.95677011e-03
  7.49002537e-03  1.62503886e-03  1.59155452e-03 -7.25107930e-04 -2.96759422e-03
  7.49588215e-03 -2.23476359e-03  6.23354318e-04 -5.61212739e-04  1.05221588e-02
  3.26753450e-03 -5.62622926e-02  8.16193528e-05  3.21648656e-05  2.13032756e-03
 -7.52992025e-04 -2.80613992e-04 -1.98071757e-02  2.15127316e-03  1.44861799e-04
  6.09653122e-05  3.13204692e-06  3.24984237e-06 -9.88010825e-01 -5.35120244e-02
  1.70602481e-02 -4.02143313e-05 -2.32735634e-05 -9.30156091e-04 -2.45242785e-03
 -1.06531028e-03 -6.23248961e-02 -4.59923231e-03 -3.16041657e-04 -1.39817447e-04
 -4.99532774e-06 -5.37725671e-06 -7.99085356e-04 -1.28652744e-03  5.90216725e-02
  8.45809585e-05  3.66777003e-05  2.15184640e-03 -8.70655285e-04 -4.13506212e-04
 -2.14971363e-02  1.01015465e-03  7.18345847e-05  3.54949198e-05  1.10914111e-06
  1.44099511e-06  8.24240462e-04  2.66462818e-03 -4.70265169e-06 -7.61650879e-05
 -5.06154720e-04  8.12196751e-04  2.64300867e-03  2.97915058e-05  3.82907797e-05
 -5.11231685e-04  8.18571244e-04  2.65509298e-03 -8.64891640e-05  7.49209086e-06
 -5.07938492e-04  5.06961214e-02 -9.73038599e-02 -2.58197988e-02 -1.46603669e-03
 -6.37316882e-04 -3.73733252e-02 -3.45212559e-04 -1.34253980e-04 -9.14809184e-03
 -5.36211194e-03 -3.63256292e-04 -1.54392706e-04 -6.68755107e-06 -6.18464234e-06
  2.02568896e-01 -3.86997880e-01 -9.42243888e-02 -7.35567621e-03 -3.40526776e-03
 -1.83437614e-01 -1.09559541e-03 -5.20148900e-04 -2.71704084e-02 -2.38791904e-02
 -1.64552097e-03 -7.37339776e-04 -2.63859526e-05 -2.89525075e-05 -2.27592505e-01
 -4.44520335e-01 -1.34555532e-01 -7.90249185e-03 -3.57423512e-03 -1.98251425e-01
  5.87046592e-04  2.65065221e-04  1.47339188e-02 -1.92059650e-02 -1.32845715e-03
 -6.02066390e-04 -2.07547566e-05 -2.35306588e-05 -2.37665122e-02 -1.10421754e-03
  7.32157767e-04 -3.22478293e-03 -1.83021403e-03 -2.37982168e-02 -1.10884633e-03
  2.29346764e-03  2.26457314e-03 -1.97251870e-03 -2.37895475e-02 -1.10003031e-03
 -3.24063705e-03  8.75323343e-04 -1.73796359e-03  2.38238380e-01 -4.71810851e-01
  2.63674172e-03 -2.19593781e-03 -9.21844969e-04 -5.67724702e-02  1.26445104e-03
  4.85335959e-04  3.30306438e-02 -6.31377245e-03 -4.22618124e-04 -1.79223120e-04
 -7.73177354e-06 -3.36196352e-06  5.40484231e-02 -1.03612428e-01 -7.07482709e-02
  9.33894721e-03  3.97673847e-03  2.38088158e-01  6.27370935e-03  2.68936737e-03
  1.59997150e-01 -8.55090681e-03 -5.62981396e-04 -2.07566478e-04 -1.01545609e-05
 -7.62775149e-06  8.29857791e-02  1.71524185e-01 -2.78083254e-02  2.43499914e-03
  1.15868217e-03  6.02150326e-02  8.12471439e-04  3.96286634e-04  1.98017801e-02
  5.15842958e-03  3.62520747e-04  1.74330105e-04  5.59535270e-06  6.91315821e-06
 -1.51423401e-01 -2.80240633e-02  4.12066100e-03 -1.76607113e-02 -7.63755430e-03
 -1.51267422e-01 -2.79883323e-02  1.26668118e-02  1.24589671e-02 -8.39973434e-03
 -1.51387950e-01 -2.80086996e-02 -1.76825833e-02  4.85310476e-03 -7.12126166e-03
  5.44794958e-02 -1.05654698e-01 -2.60427066e-02  1.55198980e-02  7.20368079e-03
  4.03359823e-01  6.30119973e-03  2.85380613e-03  1.63798207e-01  2.19887180e-02
  1.47279992e-03  5.79263077e-04  5.18021952e-05  5.46621352e-05 -1.44926237e-01
  3.20261055e-01  1.07544208e-01 -1.06646527e-02 -4.30225326e-03 -2.71044558e-01
 -2.30707482e-03 -8.79800914e-04 -5.77502332e-02  2.43668517e-03  1.61529178e-04
  3.46706785e-05  6.27822676e-06  4.05304804e-06 -7.54213108e-02 -1.59276921e-01
 -1.01181108e-01  6.09089174e-04  5.99102963e-05  1.63738497e-02 -8.79291455e-04
 -3.26016847e-04 -2.26749475e-02  2.57676499e-03  1.73065214e-04  5.37426897e-05
  3.08705851e-06  2.09734791e-06 -1.62929995e-01 -4.63551575e-02  3.41195846e-03
 -1.26073556e-02  5.57920226e-03 -1.61359208e-01 -4.60027285e-02  9.54202994e-03
  9.16575218e-03  5.08050230e-03 -1.61696883e-01 -4.60690512e-02 -1.23062201e-02
  3.69192950e-03  5.99589457e-03 -5.25363684e-05  1.16807769e-04  1.57578154e-04
 -2.96467273e-01  3.07128187e-01  6.07164607e-03 -1.23115016e-01  1.27527262e-01
  2.49309838e-03 -4.84383765e-06 -1.40843276e-03  1.14702870e-03  1.26901642e-02
 -3.61160667e-04  3.14852392e-04 -6.81211620e-04 -2.11727438e-04 -1.32775678e-01
  1.37516909e-01  3.34290617e-03 -6.27467671e-02  6.49948232e-02  1.66599834e-03
 -2.79186283e-04  6.73613808e-03 -7.02345529e-03  2.05356608e-03 -2.24303188e-04
  1.41678591e-04  3.25891351e-04 -1.67227678e-05  7.33747628e-02 -7.59821744e-02
 -1.63265626e-03 -2.86966989e-02  2.97197320e-02  7.46541602e-04 -2.82778426e-04
  7.53047824e-03 -7.80745644e-03  4.06506495e-04 -1.73872792e-04 -2.81279221e-01
 -8.34768586e-02 -3.95834226e-03 -1.10948462e-02 -8.33154891e-03  8.84873605e-04
  2.54441392e-04 -8.68437129e-03  8.90713325e-03  2.08346911e-04  2.81337917e-01
  8.34964699e-02  1.14350762e-02  3.43708190e-03  8.11866842e-03  7.81417885e-06
 -4.65545636e-05 -5.12336535e-04 -3.06587735e-01 -2.96366835e-01  1.68857044e-02
 -1.27464054e-01 -1.23203289e-01  6.93503673e-03  1.18345475e-04 -7.65600850e-04
 -4.43568801e-04 -3.94129335e-04 -1.28168596e-02 -3.00916768e-04  6.06940504e-04
  2.16494335e-04 -1.37642120e-01 -1.32981573e-01  7.33430082e-03 -6.50636340e-02
 -6.28509976e-02  2.93798660e-03 -6.18083691e-04  7.05119202e-03  6.85757334e-03
  1.23419623e-04 -1.34847410e-03 -8.20580907e-05 -2.38634782e-04  5.54125209e-04
  7.61105916e-02  7.35394076e-02 -4.34942199e-03 -2.98201411e-02 -2.88054461e-02
  1.47762107e-03 -7.76888878e-04  7.79256925e-03  7.53826902e-03  1.76039131e-04
  4.78063577e-04  1.61564897e-01  4.80232871e-02 -1.16275624e-02  2.87083551e-03
  5.38241276e-03 -3.24915491e-01 -9.65230951e-02  7.69761424e-03  7.72005437e-03
 -1.03710679e-02  1.62505956e-01  4.83165936e-02  2.65752172e-03 -1.18214567e-02
  5.08021441e-03  1.44750325e-02 -3.94790655e-02 -1.06398055e-01 -4.30721303e-03
 -1.53136872e-03 -1.14205014e-01 -3.08232476e-03 -1.04892543e-03 -8.25236057e-02
 -1.67556738e-03 -1.23091114e-04 -5.18870398e-05  5.08772733e-07  6.53793323e-06
 -8.25255524e-02  1.78397532e-01  6.82116218e-02  9.71709781e-03  4.04596973e-03
  2.54874461e-01 -2.09215029e-03 -1.07202158e-03 -4.75577908e-02 -6.56636040e-03
 -4.75939913e-04 -2.32183687e-04 -7.36902355e-06 -8.74381616e-06 -1.49619731e-01
 -3.14478036e-01 -3.68852576e-01  2.01199767e-02  9.45910324e-03  4.94001162e-01
 -1.09618155e-02 -5.18426255e-03 -2.68582767e-01  2.87190517e-02  2.01718479e-03
  9.39960555e-04  3.23022560e-05  3.85058425e-05  2.43612768e-02  1.90735578e-02
 -5.06590942e-04  1.59301175e-03 -2.56408467e-03  2.46597872e-02  1.91430122e-02
 -1.31005654e-03 -1.21269936e-03 -2.48877351e-03  2.44123312e-02  1.90812352e-02
  1.51782989e-03 -4.96984052e-04 -2.61407807e-03 -1.67415083e-05  2.87641903e-05
  6.02888224e-04 -8.83120461e-02  1.25270203e-01  1.41024409e-03 -5.51908334e-02
  7.82863214e-02  1.03047422e-03 -2.89096136e-04  9.44208349e-03 -1.37714407e-02
  8.29482590e-03  5.79247488e-04  1.21948350e-05  7.96411076e-06 -1.13179112e-04
  2.19596073e-01 -3.11392369e-01 -3.31726128e-03  1.34366882e-01 -1.90498022e-01
 -1.59961289e-03 -4.66678944e-04  1.88074704e-02 -2.67352902e-02  2.25166038e-03
 -5.97589034e-04  5.65798312e-05  1.26783812e-04 -5.78616445e-05 -2.54942697e-01
  3.61469077e-01  3.33348347e-03  1.48559760e-01 -2.10632408e-01 -1.89570704e-03
  4.03690047e-04 -1.70927791e-02  2.42522306e-02 -1.11713523e-03  6.58492377e-04
 -1.52728339e-01 -7.31886073e-02 -8.79367935e-04 -3.85426806e-03 -6.89262013e-04
  2.54380999e-02  1.21512663e-02 -3.78947258e-03  3.06983464e-03  2.23013010e-04
  1.27486345e-01  6.10111031e-02  3.70297847e-03  2.15658007e-03  4.57253888e-04
 -1.35229610e-05  2.42862886e-05  1.08197657e-03  1.25379316e-01  8.85025013e-02
 -6.13789362e-03  7.84898356e-02  5.53935572e-02 -3.54921018e-03  1.18210395e-03
 -1.38682671e-02 -1.00543517e-02 -1.34341309e-03  7.12210979e-03 -4.03685547e-06
  7.58682722e-05 -9.73877860e-05 -3.10909995e-01 -2.19406958e-01  1.56915408e-02
 -1.90228043e-01 -1.34248438e-01  1.05302242e-02  2.43402673e-03 -2.66817523e-02
 -1.88766080e-02 -8.50458665e-04 -2.20558024e-04  1.67557157e-04  3.59403479e-04
  1.21595709e-04  3.61023210e-01  2.54783424e-01 -1.98986515e-02 -2.10385832e-01
 -1.48476126e-01  1.16541345e-02 -2.25968100e-03  2.41607103e-02  1.70638822e-02
  6.56067819e-04  1.12627764e-03 -5.90015414e-02 -2.83289805e-02  4.77014433e-03
 -2.03611160e-04 -4.87349267e-04  1.62027447e-01  7.74952881e-02 -2.13286297e-03
 -3.14851616e-03  9.36217042e-04 -1.02921352e-01 -4.93418248e-02 -1.26005896e-03
  4.32719773e-03 -5.37201922e-04  1.89480142e-03 -3.55950364e-03 -3.08424519e-02
 -4.25906882e-02 -8.28600591e-02  2.40338414e-03 -1.99367401e-01 -3.89168788e-01
  1.36434672e-02  2.39284103e-03 -2.04353049e-02 -3.96515116e-02  5.62485076e-03
  1.36506104e-02 -3.35600129e-04 -9.18942634e-05  1.42773196e-02 -1.92623523e-01
 -3.76483244e-01  1.35282615e-02 -2.30957262e-01 -4.51281161e-01  1.54330666e-02
 -2.72052057e-03  1.87649208e-02  3.69185988e-02  1.64132063e-03  5.93300838e-03
 -4.78299070e-04 -1.05020018e-03 -3.95905479e-03 -1.86198936e-01 -3.64065879e-01
  1.29443106e-02  2.34660623e-01  4.58653320e-01 -1.56126142e-02 -5.56157893e-04
  3.64561293e-03  7.16195448e-03  1.76453393e-04  7.86476569e-04 -1.65393902e-01
 -5.65096598e-01  3.89985560e-04  1.02921823e-03  9.99373395e-03  2.09275869e-01
  7.39633088e-01  2.99419941e-04  7.12328904e-04 -1.27708101e-02 -4.25598304e-02
 -1.37806517e-01  3.35103306e-04  2.83300366e-04  2.54300951e-03 -6.32045054e-05
  8.18120235e-05  1.51806971e-03  8.27090888e-02 -4.22560682e-02 -2.52268801e-03
  3.88880501e-01 -1.99279131e-01 -1.18269871e-02 -2.08763793e-03  3.85979527e-02
 -1.96580566e-02  1.72690653e-02 -5.97356315e-03  5.81759758e-05 -9.48346558e-05
 -6.95660885e-04  3.76523145e-01 -1.93179601e-01 -1.13941638e-02  4.51452475e-01
 -2.31567684e-01 -1.32700589e-02  1.97856569e-03 -3.71679093e-02  1.91772486e-02
  2.31287561e-03 -1.44829224e-03  1.96266666e-05  6.12355235e-05 -2.08269129e-04
  3.64034531e-01 -1.86850308e-01 -1.10743165e-02 -4.58664228e-01  2.35360481e-01
  1.40449188e-02  3.81428229e-04 -7.19310980e-03  3.70484348e-03  7.61685853e-05
 -1.46737703e-04 -1.45262239e-01 -5.05843380e-01 -9.40313087e-05  8.56350707e-04
  8.83809055e-03 -7.09468228e-02 -2.47616552e-01 -3.20045980e-04  2.12975083e-05
  4.33331201e-03  2.16199180e-01  7.52489003e-01 -1.62408257e-03  1.74744789e-04
 -1.31161825e-02  1.51170812e-01 -2.61528040e-01 -2.57766035e+00  3.01699443e-03
  1.82178733e-03  6.38907244e-02  1.38051769e-02  8.56365123e-03  2.95315919e-01
 -3.73675016e-03  1.10528571e-05  3.68728374e-04 -6.61790172e-05 -1.82663846e-04
 -8.04884205e-03 -2.27572268e-02  9.18748593e-01  1.02446815e-03  3.72632054e-03
 -3.26275652e-02  1.00731932e-02  8.59697968e-03  1.77386201e-01 -1.93083420e-02
 -1.53742178e-03 -9.82815143e-04 -3.68468957e-05 -9.91421506e-05 -3.11423802e-02
 -5.30660061e-02 -5.28092956e-01 -2.59250884e-04  3.01282589e-03 -6.14620362e-02
  5.53041466e-03 -1.39156619e-03  2.09068248e-01 -6.31546839e-03 -4.86883873e-04
 -2.91867224e-04 -7.58406316e-06 -1.72444381e-05  3.64113114e-02  1.15746111e+00
  2.16483643e-03 -8.64961694e-03 -7.36860355e-04  3.21372741e-02  1.13994753e+00
  6.34163440e-03  6.16085362e-03 -8.18804010e-04  3.51670903e-02  1.15223824e+00
 -8.57732260e-03  2.45290528e-03 -3.87693410e-04 -1.73492208e-04  5.59717759e-04
  3.30622608e-03 -3.66283310e-01 -1.17592065e-01  1.75944422e-02 -1.15802190e+00
 -3.71052083e-01  5.56096306e-02 -9.82178310e-04  1.15224353e-02  3.33621507e-03
 -3.26002178e-03  8.35964100e-03  4.15109297e-04 -5.76829703e-04 -7.98238133e-03
  1.89773576e-01  6.11570592e-02 -7.86941816e-03  5.08034100e-01  1.63221731e-01
 -1.92974160e-02  4.62282418e-04 -3.35530108e-03 -1.44607014e-03 -3.61882492e-03
  7.54468741e-03  2.73890872e-04  7.85179510e-04 -3.20246722e-04  1.89741955e-01
  6.10954082e-02 -7.98344003e-03 -3.10349831e-01 -9.98066932e-02  1.37043122e-02
  4.36014523e-04 -5.38594725e-03 -1.79132676e-03 -7.09005505e-04  9.79914144e-04
 -5.51481895e-04 -1.11629936e-01 -1.11944496e-02 -2.19870437e-03  1.28285724e-04
  1.02997399e-02  1.58618460e+00  3.10055442e-03  9.88705098e-03  5.25407452e-03
 -9.00084376e-03 -1.47050551e+00  5.92121357e-03 -8.41787450e-03 -5.11475335e-03
 -2.33356181e-04  6.32794375e-04  6.22686410e-03  1.17694842e-01 -3.66537841e-01
  2.79520136e-03  3.73171566e-01 -1.15986027e+00  9.51159253e-03 -2.11780102e-04
 -4.06290627e-03  1.14997950e-02  7.65540993e-03  4.04417651e-03  5.34196229e-04
 -8.11669525e-04 -9.06616337e-03 -6.05877372e-02  1.89601078e-01  3.08672790e-05
 -1.62862612e-01  5.08502437e-01  3.20295948e-03  2.40453113e-04  7.22598832e-04
 -3.35889579e-03  7.78898099e-03  3.37688848e-03  2.88402007e-04  8.86730203e-04
 -1.64489692e-03 -6.06313832e-02  1.89540003e-01 -2.41638682e-04  9.94585406e-02
 -3.10382888e-01  1.48555030e-03  5.18022994e-05  1.66780007e-03 -5.38969301e-03
  1.31739107e-03  3.39334461e-04 -1.04216920e-02 -1.76637666e+00 -1.92633772e-03
  9.55706871e-03 -6.04677008e-03  5.25422443e-03  7.85105106e-01  1.03318241e-02
 -4.15828139e-03  2.44505784e-03  6.31850702e-03  9.84040190e-01 -7.74606575e-03
 -7.51756194e-03  3.86688910e-03  5.52176791e-02 -1.29687973e-01 -9.13348184e-01
 -1.69817850e-02 -8.00129502e-03 -4.21525154e-01 -6.61989705e-02 -3.11062762e-02
 -1.65159987e+00  3.84850144e-02  2.70672115e-03  1.27542165e-03  7.07180565e-06
  1.66125668e-05 -1.11623275e-01  1.96595841e-01  2.99431362e+00 -7.83272363e-03
 -2.16677143e-03 -2.23236932e-01 -1.91624091e-02 -3.99538557e-03 -5.60537486e-01
 -4.60221177e-02 -3.20460496e-03 -1.47756855e-03 -3.92733171e-05 -2.71641985e-05
 -9.20543531e-02 -2.34959030e-01 -6.56683366e-01 -6.23308220e-03 -1.77326014e-03
 -1.75228827e-01  1.26179098e-02  3.47197689e-03  3.56041977e-01 -1.01982387e-02
 -7.46074848e-04 -3.88934273e-04 -8.86859918e-06 -1.05079340e-05 -9.17393284e-02
 -4.01461379e-01 -2.97244283e-03  9.23784381e-03 -1.44957257e-02 -9.39237393e-02
 -3.85625425e-01 -7.45963688e-03 -6.91081960e-03 -1.37779071e-02 -9.27705200e-02
 -3.94538276e-01  8.75992097e-03 -2.90527920e-03 -1.46392246e-02  3.65346915e-03
  2.43530576e-01 -6.19153311e+00  6.12842765e-03  1.99797155e-03  1.58059202e-01
 -1.07557728e-01 -4.33849213e-02 -2.81164680e+00  3.24770514e-02  2.14198450e-03
  7.96421400e-04  5.99900039e-05  8.00195679e-05 -1.02892483e-01  2.23146373e-01
  2.03643793e-01 -8.57873041e-03 -3.80240092e-03 -2.18896008e-01 -2.24028913e-01
 -9.70079396e-02 -5.69328412e+00  1.73053422e-02  1.14529939e-03  4.59684613e-04
  2.80251359e-05  1.57324909e-05  5.06329249e-02 -7.57967063e-02  4.89129529e+00
 -8.48988640e-04 -2.91071754e-04 -2.20103258e-02 -5.69442401e-02 -2.72920775e-02
 -1.40289513e+00  3.14725486e-02  2.18166289e-03  1.00381984e-03  3.68944660e-05
  4.11577797e-05 -6.29443666e-02  6.25499085e-01 -1.65567152e-04 -1.24223511e-04
 -4.17584829e-03 -6.30354527e-02  6.27138304e-01 -1.33915300e-04 -5.51341121e-05
 -4.41143298e-03 -6.30486747e-02  6.28218622e-01 -2.31189592e-04 -8.34675702e-05
 -4.26643073e-03 -1.15236450e-04  1.48783329e-03 -4.84351978e-03 -1.21040465e-01
 -1.02773514e-01  5.86835209e-03  8.69148382e-01  7.38931466e-01 -4.06077796e-02
 -1.21457831e-03  1.35465378e-02  1.43168678e-02  3.70061522e-03 -9.93787327e-02
 -4.46418813e-04  2.07155425e-03 -7.64947826e-03 -4.42502835e-01 -3.77422941e-01
  2.37240445e-02  4.63466233e-02  4.04287623e-02 -2.95774548e-03  8.25327058e-04
 -9.76336468e-03 -7.91759268e-03  3.28646381e-04 -1.72423813e-02 -5.11878897e-05
 -5.20988160e-04  3.70631411e-03 -2.25691215e-02 -1.92154893e-02  7.78797703e-04
  1.17136668e-01  9.96374455e-02 -7.83587443e-03 -2.56204667e-03  2.73681795e-02
  2.33712973e-02  6.80689819e-04  1.00729189e-03  3.40022195e-01  1.98869274e-03
  7.69642277e-02  1.44564137e-02 -7.61168430e-03 -7.63150322e-01  1.63373574e-03
 -3.04435994e-03 -1.11031459e-02  1.00615174e-02  4.26270652e-01  1.99363876e-03
  1.40924829e-02  7.14794643e-02 -7.02491220e-03 -7.57423833e-05  5.97213448e-04
  2.21197353e-03  1.02571643e-01 -1.20278848e-01 -2.04875566e-03 -7.39462078e-01
  8.68596265e-01  1.98710075e-02  2.55944615e-04 -6.51002721e-03  1.09115854e-02
 -1.00375394e-01 -2.98206918e-03 -1.28356012e-04  8.89747775e-04 -5.64273196e-03
  3.78668928e-01 -4.45995209e-01 -7.32662300e-03 -4.20182516e-02  5.07757741e-02
  4.71453506e-03 -3.08760172e-04  9.30605578e-03 -1.04818651e-02 -1.62378019e-02
 -8.00229280e-04  5.56136883e-06 -3.67124342e-05 -1.01532821e-03  1.89594128e-02
 -2.23032131e-02 -4.43949615e-04 -9.95511351e-02  1.16903279e-01  1.86832253e-03
  7.61232288e-04 -2.34220110e-02  2.76225207e-02 -1.90849354e-03  6.57336618e-04
  6.85458063e-01  4.87059799e-03 -3.56539755e-02 -1.87792168e-02 -7.50071778e-03
 -4.87706568e-02  5.62592047e-04 -6.12043213e-02  6.22907003e-02  2.14506324e-03
 -6.35472280e-01 -2.83720505e-03  2.19332699e-02  4.44663630e-02  6.90577394e-03
  1.85575853e-01 -1.04656933e+00  1.18426356e+00 -2.24476674e-02 -6.25338271e-03
 -6.04001467e-01  2.92569461e-02 -5.97714555e-03  9.40197037e-01 -3.50992480e-03
 -4.24026862e-04 -3.95786374e-04  5.99363862e-04  1.10097000e-03 -1.86033302e-01
  6.98571251e-01 -2.49864783e+00 -3.66303317e-03 -1.28097446e-02  1.52832400e-02
 -3.72804867e-02  6.07573073e-03 -1.17102662e+00 -1.48838898e-01 -1.02128944e-02
 -4.65638298e-03 -3.45533437e-05  4.02008857e-05  2.64581438e-02  1.01207632e-01
  1.60153235e+00 -9.21494853e-03 -4.13782240e-04 -2.74809439e-01 -1.96020528e-02
 -1.16320430e-02 -4.61084876e-01  7.14018777e-02  5.10469178e-03  2.79657507e-03
  7.78753632e-05  1.19417152e-04  2.66868788e-01 -2.08127053e-01  5.64592942e-03
 -2.92319885e-02 -2.26963297e-02  2.82799125e-01 -2.10768094e-01  2.10877530e-02
  2.01382824e-02 -2.22765644e-02  2.73667876e-01 -2.09165718e-01 -2.98313117e-02
  6.60824861e-03 -2.10544739e-02  2.54428872e-03 -1.39779860e-02  1.39556934e-02
 -1.84141970e-01 -8.97098241e-02  2.55309999e-04  1.07762473e+00  5.25573259e-01
 -3.60933948e-02 -9.37748096e-04  1.14689364e-02  7.90180111e-03  1.64823289e-02
 -5.48329344e-02 -2.41988472e-03  8.68956430e-03 -3.74052938e-02  6.84014978e-01
  3.34690714e-01 -3.27474750e-02 -1.32533589e+00 -6.47914545e-01  4.45743975e-02
 -3.73742531e-03  1.87776541e-02  9.71042769e-03  4.33491334e-03 -1.20008944e-02
  4.70480502e-04  1.68272402e-03  2.61213629e-02 -1.96794914e-01 -9.62472335e-02
  5.58499573e-03  1.30515321e-01  6.37058163e-02 -1.42015621e-02  3.79754454e-03
 -3.24204150e-02 -1.58577412e-02 -8.75259359e-04 -1.64840224e-03  9.09665880e-02
  1.63752578e-03  5.70264478e-02  1.33494540e-02  1.01699764e-02 -3.95015188e-01
 -2.30450477e-02  9.10791039e-03 -1.55263260e-02 -5.99514441e-02  3.16707561e-01
  1.46760686e-02  1.03468571e-02  3.94402505e-02  4.51913565e-02  2.63344506e-03
 -1.52000794e-02  2.25435345e-02  9.01429763e-02 -1.84504979e-01 -8.66966084e-03
 -5.30414223e-01  1.08363587e+00  1.98490754e-02 -4.84746449e-06 -3.18489028e-03
  1.12375350e-02 -5.61222058e-02 -1.58632819e-02 -2.43965475e-03  9.22213052e-03
 -4.01273162e-02 -3.33608206e-01  6.82672937e-01  1.47647560e-03  6.48049132e-01
 -1.32632396e+00 -1.62361088e-02 -2.07932816e-03 -8.76520512e-03  1.86475106e-02
 -1.36820806e-02 -3.15872249e-03  4.97209273e-04  1.93943639e-03  2.22787545e-02
  9.63118897e-02 -1.97368749e-01 -4.18349494e-03 -6.46179291e-02  1.31194784e-01
 -6.65555881e-03  9.47122384e-04  1.59401624e-02 -3.24187440e-02  7.33756867e-04
 -1.13811938e-03  4.17417301e-01  2.16591920e-02 -9.00011496e-03 -5.12891438e-03
  6.11549060e-02 -1.27104469e-01 -1.00374255e-02 -4.06194562e-02  4.03277215e-02
 -1.87202225e-02 -2.79217774e-01 -2.03041418e-02  1.17896197e-02  4.17876762e-02
 -4.32079758e-02  2.27021488e-01 -1.47278680e+00  5.42792979e+00  2.07237282e-02
 -2.58329331e-03  6.58313224e-01 -1.03475435e-02  1.65768329e-02 -5.12852303e-01
 -5.50721011e-02 -4.25026794e-03 -2.78735078e-03  5.89481723e-04  1.00859700e-03
  7.03513610e-03  8.42359954e-02 -2.85930650e-01 -2.99426904e-03 -2.64647324e-03
 -6.29935993e-02  6.29380730e-02  2.66205555e-02  1.62040193e+00  3.46133851e-02
  2.64627900e-03  1.79555679e-03 -6.64211703e-05 -1.14246054e-04 -4.14158668e-02
 -1.85816040e-01 -9.99324262e-01  3.36709498e-03  1.77074755e-03  8.56323255e-02
  1.36047726e-02  6.89541668e-03  3.29499116e-01 -2.19618727e-02 -1.47146920e-03
 -5.67319553e-04 -4.96169642e-05 -6.51137810e-05  2.72058876e-01 -1.39609858e+00
  2.69183301e-02 -1.11381203e-01 -1.77144742e-02  2.83288252e-01 -1.43935426e+00
  8.40380454e-02  8.15750082e-02 -2.46899010e-02  2.77188157e-01 -1.41473009e+00
 -1.12342727e-01  3.09597505e-02 -1.52276515e-02  2.80328125e-03 -1.79199809e-02
  7.34752379e-02  7.71992496e-01  5.34040082e-01 -3.06805975e-02 -1.51560148e+00
 -1.04888032e+00  7.27548449e-02 -8.59629143e-03  9.35451848e-02  6.83315473e-02
  1.66256115e-02 -1.00237021e-01 -3.17175233e-04  4.41202647e-03 -7.98032959e-03
  5.74292119e-02  3.95826955e-02 -3.58691724e-03  1.09207096e-01  7.58261265e-02
  2.19933382e-02  4.63432520e-03 -4.91907341e-02 -3.46038489e-02 -3.52256053e-03